 Gaussian 03, Revision B.02,
 Gaussian 03:  x86-Linux-G03RevB.02 16-Apr-2003

 --------------------------------------------------------
 #p rhf gen pop=full 5d scf=(tight,nodirect,maxcycle=500)
 --------------------------------------------------------

 ----------------
 He sto14g_vb2 hf
 ----------------
 Symbolic Z-matrix:
 Charge =  0 Multiplicity = 1

                         Standard orientation:
 ---------------------------------------------------------------------
 Center     Atomic     Atomic              Coordinates (Angstroms)
 Number     Number      Type              X           Y           Z
 ---------------------------------------------------------------------
    1          2             0        0.000000    0.000000    0.000000
 ---------------------------------------------------------------------

 SCF Done:  E(RHF) =  -2.86159484137     A.U. after    6 cycles

 The electronic state is 1-A1G.
 Alpha  occ. eigenvalues --   -0.91818
 Alpha virt. eigenvalues --    0.07228   0.93188   1.00398   1.00398   1.00398
 Alpha virt. eigenvalues --    4.04285   4.04285   4.04285   4.04285   4.04285
 Alpha virt. eigenvalues --    6.71122  48.38466  48.38466  48.38466

 Mulliken atomic charges:
              1
     1  He   0.000000
 Sum of Mulliken charges=   0.00000

 Dipole moment (field-independent basis, Debye):
    X=     0.0000    Y=     0.0000    Z=     0.0000  Tot=     0.0000
 Quadrupole moment (field-independent basis, Debye-Ang):
   XX=    -1.0666   YY=    -1.0666   ZZ=    -1.0666
   XY=     0.0000   XZ=     0.0000   YZ=     0.0000

 Normal termination of Gaussian 03 at Fri Feb 20 18:20:21 2009.
